/*--------------------------------*- C++ -*----------------------------------*\
| =========                 |                                                 |
| \\      /  F ield         | OpenFOAM: The Open Source CFD Toolbox           |
|  \\    /   O peration     | Version:  4.1                                   |
|   \\  /    A nd           | Web:      www.OpenFOAM.org                      |
|    \\/     M anipulation  |                                                 |
\*---------------------------------------------------------------------------*/
FoamFile
{
    version     2.0;
    format      ascii;
    class       volScalarField;
    location    "0.1";
    object      alpha.water;
}
// * * * * * * * * * * * * * * * * * * * * * * * * * * * * * * * * * * * * * //

dimensions      [0 0 0 0 0 0 0];

internalField   nonuniform List<scalar> 
2268
(
0.9999999813
1.000000857
1.000000269
0.9999995134
0.9999995008
0.9999998045
1.000000008
1.000000009
1.000000025
0.9999999741
0.9999998307
0.9999998259
0.9999999084
0.999999988
0.9999999878
0.9998336237
0.9983165776
0.9983927742
0.9982497992
0.8607298831
0.1699508173
0.007189379585
0.00721451353
0.9999998217
0.9999999027
0.9999998686
0.9999995149
1.000000054
1.000000117
1.000000157
1.000000018
0.9999997084
0.9999995995
0.9999996351
0.999999971
0.9999999985
0.9999999869
0.9999819069
0.9999860182
0.9998760185
0.9742645741
0.8566489623
0.6055876613
0.1491056615
0.007995389762
0.007214513531
0.9999999792
0.9999997249
1.000000068
1.000000015
1.000000263
1.000000152
1.000000053
0.9999997265
0.999999621
0.9999997089
0.9999999547
1.000000052
1.000000018
0.9999998448
0.9999998355
0.9999998139
0.9999920895
0.8705954979
0.360307068
0.05783712169
0.08272358592
0.03674270341
0.007995389762
1.000000007
0.9999999704
1.000000358
1.000000177
1.000000111
0.9999999302
0.9999997531
0.9999997181
0.9999998488
1.000000018
1.000000086
1.000000132
1.000000047
1.000000014
1.000000004
0.99999973
0.9691261047
0.5804000635
0.09121372606
0.005239205351
0.01668695979
0.03678363711
0.01162280179
1.000000033
1.000000092
1.000000381
1.000000107
0.9999998236
0.9999996008
0.999999795
1.000000004
1.000000101
1.000000174
1.000000141
1.000000128
1.000000034
1
0.9999999984
0.9999975185
0.7536533177
0.1808779379
0.005566106815
0.002072566381
0.0004827790811
0.01411037921
0.01619425508
1.000000081
1.000000103
1.00000016
0.9999999363
0.99999961
0.9999996064
1
1.000000163
1.000000202
1.000000179
1.000000092
1.000000081
1.000000024
1.000000002
1.000000368
0.9503278722
0.3816989379
0.01377724812
0.001950129842
0.0008450650195
0.0001965190545
0.0006284936019
0.01539667774
1.000000082
1.000000039
0.9999999806
0.9999996389
0.9999996399
1
1.000000145
1.000000258
1.000000212
1.000000118
1.000000033
1.000000048
1.000000021
1.000000001
0.999998913
0.757220984
0.1093545957
0.002481291618
0.0006597608393
0.0002781265133
5.779877635e-05
0.0001333054623
0.01114143338
1.00000002
0.9999999862
0.9999997021
0.9999996405
1
1.000000097
1.000000197
1.000000244
1.000000156
1.000000035
0.9999999963
1.000000012
1.000000002
1.000000156
0.9999831363
0.5050909439
0.01738267403
0.0008728761277
0.0001978963644
3.804577952e-05
8.719431469e-06
5.465427772e-05
0.002457408957
2.651126839e-16
3.309896887e-16
4.695551371e-17
4.164619497e-18
2.878481526e-19
1.657059981e-20
8.770101672e-22
4.449855288e-23
2.098031016e-24
8.992107903e-26
3.441097927e-27
1.156281073e-28
3.351575007e-30
8.204916261e-32
1.649970472e-33
2.619147562e-35
3.08047796e-37
2.389033168e-39
9.163594188e-42
1.099770991e-14
1.321272154e-14
2.022037624e-15
1.952776815e-16
1.470821695e-17
9.283154295e-19
5.363020342e-20
2.954294409e-21
1.505469232e-22
6.941534382e-24
2.845255224e-25
1.0200313e-26
3.143663325e-28
8.158668342e-30
1.734966973e-31
2.906238108e-33
3.600650306e-35
2.937204628e-37
1.182234734e-39
1.992112525e-13
2.305788375e-13
3.886735419e-14
4.114375298e-15
3.355929756e-16
2.262885969e-17
1.382913643e-18
7.919327332e-20
4.143052238e-21
1.944304552e-22
8.062544193e-24
2.911748547e-25
9.012395281e-27
2.343836329e-28
4.986480162e-30
8.3462947e-32
1.032246645e-33
8.399076152e-36
3.370388468e-38
2.034938921e-12
2.218339835e-12
4.384483741e-13
5.233858524e-14
4.735903965e-15
3.482469198e-16
2.295906509e-17
1.391132419e-18
7.591025565e-20
3.677014527e-21
1.561840636e-22
5.745387142e-24
1.803864318e-25
4.743871294e-27
1.018127623e-28
1.715899258e-30
2.133655895e-32
1.74337154e-34
7.019282144e-37
1.184029379e-11
9.589225784e-12
3.150107922e-12
4.355752138e-13
4.513896699e-14
3.719347779e-15
2.700875945e-16
1.756924793e-17
1.010651549e-18
5.094136783e-20
2.230616413e-21
8.401351348e-23
2.686956052e-24
7.170205627e-26
1.556814209e-27
2.648081568e-29
3.317005315e-31
2.726004821e-33
1.102663457e-35
2.235874117e-11
8.047332851e-11
1.449399896e-11
2.344661007e-12
2.930430535e-13
2.830904218e-14
2.3273533e-15
1.652897537e-16
1.013922903e-17
5.363349329e-19
2.436913094e-20
9.445477266e-22
3.089593046e-23
8.392137826e-25
1.847850492e-26
3.178149084e-28
4.015910529e-30
3.323051753e-32
1.351433824e-34
6.893268672e-10
6.360711352e-10
7.885552728e-11
4.994908019e-12
1.147675412e-12
1.451919452e-13
1.42321248e-14
1.138020016e-15
7.599397685e-17
4.281160463e-18
2.040396673e-19
8.204920028e-21
2.761690973e-22
7.671251587e-24
1.719050251e-25
2.997651667e-27
3.828930005e-29
3.195068168e-31
1.307947624e-33
3.215351234e-09
1.239487953e-09
1.183022459e-10
5.129900057e-12
2.303215893e-12
4.166306445e-13
5.260909743e-14
5.051013718e-15
3.858042462e-16
2.402707344e-17
1.23537583e-18
5.264567726e-20
1.853176004e-21
5.32989121e-23
1.227232052e-24
2.1858739e-26
2.83864337e-28
2.39946311e-30
9.922141732e-33
0.999999984
0.9999999123
0.9999997023
0.9999998846
1.000000063
1.000000169
1.000000208
1.000000189
1.000000091
0.9999999854
0.9999999091
0.9999999918
1
1.000001346
0.8984393362
0.2000806168
0.001901691761
0.0002051716048
3.41108653e-05
6.658743696e-06
1.799407126e-06
1.253716282e-05
2.235590823e-05
1.000000013
0.9999999068
0.9999999589
1.000000018
1.000000196
1.000000242
1.000000216
1.000000145
1.000000033
0.9999998228
0.9999997959
0.999999989
0.9999999906
1.000000456
0.5556772003
0.01591074211
0.0003416048759
4.061177294e-05
5.731133333e-06
1.251170391e-06
2.056139686e-07
3.598049652e-07
2.981186189e-06
1.000000049
0.9999999385
1.000000006
1.000000055
1.000000226
1.000000243
1.000000183
1.000000082
0.9999999642
0.999999776
0.9999997905
0.9999999934
0.9999999952
0.9586754028
0.2280810656
0.0009749532798
6.393436065e-05
7.38363621e-06
1.483018858e-06
5.015346481e-07
4.366062964e-08
4.894401271e-08
5.160789049e-07
1.000000046
0.9999998598
1.000000044
1.00000008
1.000000215
1.000000221
1.000000126
1.00000003
0.9999998457
0.999999776
0.9999998415
0.9999999987
0.9999999938
0.7700134503
0.07067340625
0.0002392501868
1.054697152e-05
1.608316562e-06
9.231670315e-07
2.012998641e-07
1.093593067e-08
6.240983275e-09
3.846607906e-08
0.9999999957
0.9999998545
1.000000109
1.000000118
1.000000175
1.000000164
1.00000006
1.000000001
0.9999999637
0.9999997806
0.9999999126
0.999999999
0.9999999992
0.5494967416
0.01086894318
4.363929531e-05
1.537902555e-06
3.915382146e-07
2.688698423e-07
6.03244375e-08
4.267178973e-09
2.122378853e-09
3.436508626e-09
0.9999999454
0.9999998955
1.000000165
1.000000131
1.000000109
1.000000084
1.000000014
0.9999999758
0.9999999787
0.9999999652
0.9999999777
0.9999999994
1.000000003
0.339555267
0.0004489578592
5.2931074e-06
1.634258063e-07
7.386309307e-08
3.292785737e-08
1.073405758e-08
1.90748789e-09
6.592373929e-10
1.131600258e-09
0.9999999343
0.999999986
1.000000154
1.000000081
1.000000045
1.000000027
0.9999999968
0.9999999563
0.9999999612
0.999999967
0.9999999893
0.9999999989
0.9337613697
0.2006160187
0.0001617062893
6.712736987e-07
-2.62641208e-08
1.557218899e-08
7.232039247e-09
2.562639708e-09
1.041982799e-09
2.803766049e-10
1.819950977e-10
0.9999999385
0.9999999891
1.00000006
1.000000008
1.000000015
1.000000008
0.9999999942
0.9999999725
0.9999999213
0.9999999641
0.9999999857
0.9999999983
0.8466494302
0.1107914691
3.29137303e-05
2.129872867e-08
1.298392444e-07
1.511172181e-08
2.579508414e-09
1.207392304e-09
5.707852764e-10
2.006238673e-10
7.300489041e-11
0.9999999714
0.9999999883
0.9999999946
0.999999993
1
1
0.9999999954
0.9999999798
0.9999998928
0.9999999504
0.9999999835
0.9999999955
0.7460972605
0.05236091453
2.176891004e-06
1.168112425e-08
1.642536925e-08
4.672198446e-09
1.125821226e-09
5.766281301e-10
2.616187701e-10
1.058500178e-10
4.107132273e-11
0.9999999642
0.9999999851
0.9999999892
0.9999999901
0.9999999984
0.9999999967
0.99999999
0.9999999637
0.9999998688
0.99999992
0.9999999643
0.9999999491
0.6271075905
0.01818774819
-2.715240299e-07
2.453951835e-09
6.184414359e-10
7.319635826e-10
4.476739749e-10
2.30226828e-10
9.520100234e-11
2.773644075e-11
9.905800892e-12
0.9999999316
0.9999999565
0.9999999618
0.9999999647
0.9999999585
0.9999999338
0.9999999147
0.9999998585
0.9999997061
0.9999997127
0.9999997755
0.9999994454
0.4818399048
0.002653593005
-2.383672803e-07
4.812520103e-10
3.268404236e-10
2.799223793e-10
1.864032753e-10
8.448993719e-11
2.254793475e-11
1.036991973e-11
5.811998231e-12
0.999999656
0.9999996349
0.9999996404
0.9999996017
0.9999995017
0.9999993501
0.9999991615
0.9999988685
0.9999983239
0.9999978209
0.9999977974
0.9999941618
0.3278028073
9.787105122e-06
3.502025653e-08
7.055792995e-08
2.378095999e-10
1.036096578e-10
8.502087421e-11
2.662119108e-11
1.054076276e-11
6.30659844e-12
2.689654787e-12
0.9999966072
0.9999960484
0.999995941
0.9999954109
0.9999945328
0.9999932491
0.9999914585
0.999988901
0.9999851022
0.9999796435
0.999976819
0.9999386222
0.2266342761
5.566763405e-07
5.243016096e-08
6.453314399e-08
1.068960624e-09
6.805294767e-11
3.925898291e-11
1.092232358e-11
6.87289638e-12
2.916008054e-12
1.016491494e-12
0.9999640273
0.9999588274
0.9999572078
0.999952047
0.9999440999
0.9999326934
0.9999168318
0.9998950347
0.9998652324
0.9998250506
0.9997541483
0.9993571314
0.2005998534
9.981820863e-07
1.604673194e-08
-5.101972497e-09
2.556243598e-12
1.666871355e-11
1.420716102e-11
8.13400454e-12
3.906787434e-12
1.242607325e-12
3.400431312e-13
0.9995420365
0.999494066
0.999470264
0.9994132659
0.9993291337
0.9992120586
0.9990545492
0.9988468383
0.998579278
0.9959857181
0.9835467812
0.9016273068
0.2354498254
0.004228150646
6.093111397e-07
1.455136673e-08
3.312676232e-10
1.882698848e-11
5.717655753e-12
5.78949841e-12
2.313419728e-12
5.184253043e-13
1.044298046e-13
0.8662482598
0.8568693143
0.8486183231
0.8336688112
0.812460464
0.7842063898
0.7481504684
0.7034513538
0.6502471772
0.5550950714
0.4443718616
0.2287472724
0.1939521394
0.02832898818
4.517351304e-05
1.698345557e-06
3.111793853e-08
2.581021745e-10
3.466675284e-12
2.090968682e-12
1.539664638e-12
2.027087773e-13
2.86006342e-14
0.1655587724
0.1562004279
0.1475816977
0.1334926953
0.1156541882
0.09564981275
0.07382473991
0.05098089968
0.03008339426
0.001894662032
7.111059351e-09
1.132142034e-07
5.303652263e-05
0.03217139137
0.005651839186
4.005803666e-06
4.716517955e-08
7.710397786e-11
2.1756995e-12
2.179017075e-12
1.185318875e-12
7.320718693e-14
7.340207041e-15
-1.901527095e-11
-8.753037942e-11
-2.797561344e-10
-2.031177156e-09
-3.446849735e-09
-5.08154995e-09
-3.526562262e-09
-1.762801754e-09
-1.381579707e-09
8.189716984e-11
2.117913311e-10
2.435693417e-08
1.132143632e-07
0.006951265768
0.006934338953
6.453493827e-05
5.484206642e-07
1.589868128e-08
8.028716622e-13
8.906194239e-13
7.516529941e-13
2.392197365e-14
1.749310096e-15
-9.102973881e-12
-6.961030435e-11
-4.748053616e-10
-3.592343206e-09
-7.211279902e-09
-8.049849856e-09
-6.160879328e-09
-2.808269144e-09
1.604061862e-11
1.315461784e-09
5.318819862e-08
1.058116973e-06
1.333418757e-05
1.786192499e-05
0.004111787371
7.07199302e-08
1.663955985e-08
1.546924694e-09
3.318236466e-12
5.177812537e-13
3.596682923e-13
6.981452208e-15
3.838874917e-16
6.746111872e-18
2.258609429e-16
6.322666021e-16
1.04111059e-16
1.798026803e-16
4.584504478e-16
4.221209415e-15
1.824936829e-13
8.616062958e-12
3.084276531e-10
9.209146805e-09
5.243313667e-07
3.533755808e-05
0.0008446579274
0.001115337777
1.502944464e-09
-1.063959035e-10
4.552275208e-13
5.397925148e-13
3.592384427e-13
1.329584511e-13
1.795552805e-15
7.676138395e-17
6.028050475e-18
2.945625333e-16
6.374873225e-15
7.418784252e-14
4.751679037e-13
1.566154435e-12
1.806784692e-12
1.35297752e-12
4.710476333e-13
1.438922876e-12
-4.181404115e-11
8.771135926e-06
2.357147922e-05
1.072981375e-07
-3.212954706e-09
4.725019365e-10
-6.912924148e-11
-1.487867607e-12
8.25009679e-13
2.169439606e-13
3.881136542e-14
4.014314872e-16
1.381904084e-17
1.275957832e-18
6.571447934e-17
1.492162634e-15
1.902641923e-14
1.423527963e-13
5.9866887e-13
1.289987743e-12
1.547169043e-12
1.192975503e-12
1.025852067e-12
1.212801853e-12
2.790002538e-12
4.602558853e-11
5.003320257e-10
1.711124443e-09
-4.6886712e-10
1.668839733e-14
7.94659997e-13
5.032379477e-13
9.619489195e-14
9.035179587e-15
7.70424746e-17
2.21330575e-18
1.17472385e-19
6.612103982e-18
1.687403488e-16
2.527101283e-15
2.381767168e-14
1.410522943e-13
4.972031382e-13
9.6175862e-13
1.117124087e-12
8.413788852e-13
9.164177642e-13
1.145492497e-12
1.431708962e-12
-1.968412379e-13
-3.342935816e-10
2.765725513e-13
-1.216594738e-12
8.359185594e-13
2.549698782e-13
3.017137448e-14
1.684376244e-15
1.256753342e-17
3.121355774e-19
5.107103736e-21
3.070883712e-19
8.593634096e-18
1.455450075e-16
1.631242032e-15
1.240833488e-14
6.327573413e-14
2.069552932e-13
4.085792015e-13
5.298159021e-13
8.027449377e-13
1.219524776e-12
1.436178551e-12
1.421018158e-12
3.048851026e-12
2.486566169e-12
1.576937684e-12
7.909178061e-13
1.31963181e-13
6.767670645e-15
2.522329096e-16
1.731003791e-18
3.845244856e-20
8.471355159e-23
5.565371522e-21
1.740274869e-19
3.392358095e-18
4.567938813e-17
4.45036369e-16
3.205964805e-15
1.728060244e-14
7.096739229e-14
2.340772041e-13
6.916356679e-13
2.005599728e-12
5.400628439e-12
1.167589808e-11
1.652705502e-11
3.3546453e-12
2.179770126e-12
8.531235062e-13
4.25530084e-14
1.106058059e-15
3.042422886e-17
2.005066048e-19
4.114461781e-21
7.870901135e-25
6.066823387e-23
2.269485206e-21
5.44740062e-20
9.346612471e-19
1.210166811e-17
1.217989721e-16
9.684513784e-16
6.132792623e-15
3.102211283e-14
1.250734021e-13
3.9866518e-13
9.895456212e-13
1.85478456e-12
2.443678387e-12
2.145177773e-12
1.658017376e-12
2.613440455e-13
8.099001328e-15
1.336778711e-16
2.960491924e-18
1.947992445e-20
3.808505555e-22
3.604693931e-27
3.046776419e-25
1.252923458e-23
3.329846849e-22
6.381877642e-21
9.332564546e-20
1.075657927e-18
9.964604202e-18
7.508893821e-17
4.635385035e-16
2.350610952e-15
9.780809713e-15
3.321176683e-14
9.059559959e-14
1.90649927e-13
2.828069597e-13
2.570562808e-13
3.594329033e-14
9.588561265e-16
1.207692795e-17
2.325814046e-19
1.584566029e-21
3.041088383e-23
3.09014552e-30
2.771689459e-28
1.212446202e-26
3.43981319e-25
7.081167251e-24
1.121948291e-22
1.417712552e-21
1.462679788e-20
1.253114903e-19
9.033019537e-19
5.5394465e-18
2.91955235e-17
1.335586316e-16
5.34202775e-16
1.864869976e-15
5.550570791e-15
1.30853801e-14
2.594616599e-15
7.358593898e-17
8.215303946e-19
1.476070784e-20
1.078259108e-22
2.091265172e-24
1.843245715e-33
1.898842362e-31
9.617411932e-30
3.180877102e-28
7.69955906e-27
1.44867501e-25
2.197739227e-24
2.754467211e-23
2.901522406e-22
2.601687061e-21
2.004906143e-20
1.337535713e-19
7.761170293e-19
3.915821041e-18
1.698915818e-17
6.126560853e-17
1.678388358e-16
1.019358953e-16
3.735120643e-18
4.222146774e-20
7.56889492e-22
6.13688543e-24
1.237684269e-25
9.541115428e-37
1.042070841e-34
5.595917361e-33
1.959677715e-31
5.0178681e-30
9.980892996e-29
1.600026087e-27
2.118287134e-26
2.35613844e-25
2.229841091e-24
1.813401259e-23
1.278094417e-22
7.87532185e-22
4.291379961e-21
2.109552617e-20
9.71691514e-20
4.434612215e-19
2.054047262e-18
1.254240741e-19
1.638361065e-21
3.134426962e-23
2.922267453e-25
6.305739913e-27
6.109597634e-41
7.848717048e-39
4.998985444e-37
2.09802246e-35
6.516877225e-34
1.595317403e-32
3.201342508e-31
5.411614265e-30
7.864372879e-29
9.985048832e-28
1.122643205e-26
1.130909411e-25
1.031160384e-24
8.579340862e-24
6.544241172e-23
4.572658212e-22
2.896573548e-21
1.616676896e-20
2.723358078e-21
4.775434786e-23
1.047117477e-24
1.165110841e-26
2.768635606e-28
2.578489442e-44
3.62637404e-42
2.521968194e-40
1.154887836e-38
3.911382623e-37
1.043282468e-35
2.279159688e-34
4.188332191e-33
6.600367755e-32
9.048605356e-31
1.090649667e-29
1.164104541e-28
1.103708972e-27
9.270072538e-27
6.814822323e-26
4.26848718e-25
2.172312985e-24
8.645880146e-24
3.603377486e-23
1.034291568e-24
2.816611112e-26
3.894315706e-28
1.049702691e-29
1.650994101e-49
2.617263261e-47
2.064708654e-45
1.083996994e-43
4.265963931e-42
1.344080683e-40
3.537202925e-39
8.012379105e-38
1.598175775e-36
2.858569658e-35
4.654689068e-34
6.989579674e-33
9.787750448e-32
1.290488115e-30
1.614707072e-29
1.928648696e-28
2.20635104e-27
2.416783667e-26
2.520610732e-25
1.634096994e-26
6.08424285e-28
1.093271465e-29
3.446974709e-31
2.706214316e-53
5.248008425e-51
5.045447657e-49
3.218301357e-47
1.533206396e-45
5.822242594e-44
1.837140082e-42
4.959528727e-41
1.170999974e-39
2.461070989e-38
4.671802517e-37
8.110494018e-36
1.301509818e-34
1.947810582e-33
2.737181992e-32
3.626725025e-31
4.532533409e-30
5.312627356e-29
5.741618795e-28
1.82781052e-28
1.051932681e-29
2.584971475e-31
9.84438021e-33
1.557845839e-57
3.359819095e-55
3.573396638e-53
2.508825997e-51
1.308730996e-49
5.410750577e-48
1.846570048e-46
5.349675749e-45
1.342737203e-43
2.965120346e-42
5.829531966e-41
1.029809708e-39
1.64638211e-38
2.39679268e-37
3.201494497e-36
3.984475524e-35
4.793683498e-34
5.999695253e-33
8.502758685e-32
1.37619211e-30
1.450098007e-31
5.168433708e-33
2.458869342e-34
1.086862612e-62
2.899730074e-60
3.839533108e-58
3.381800782e-56
2.234202011e-54
1.183239196e-52
5.243401744e-51
2.004376177e-49
6.765174391e-48
2.054368533e-46
5.702621793e-45
1.467210276e-43
3.542527341e-42
8.117042826e-41
1.782953373e-39
3.788593944e-38
7.850207953e-37
1.597001457e-35
3.206662371e-34
6.379045941e-33
1.5880838e-33
8.789827313e-35
5.410562208e-36
1.104099937e-66
3.496119907e-64
5.495174579e-62
5.743915796e-60
4.50326219e-58
2.830661647e-56
1.489202894e-54
6.760429516e-53
2.710383853e-51
9.777220748e-50
3.223276223e-48
9.842710051e-47
2.817089529e-45
7.636806005e-44
1.979201703e-42
4.944128778e-41
1.198899342e-39
2.838711209e-38
6.591534522e-37
1.504505301e-35
1.37879025e-35
1.282268823e-36
1.058688593e-37
3.166123737e-71
1.218816462e-68
2.329222412e-66
2.957890017e-64
2.815097495e-62
2.146180391e-60
1.368043984e-58
7.515061675e-57
3.639772111e-55
1.582595821e-53
6.269681409e-52
2.29124717e-50
7.804823581e-49
2.499536985e-47
7.577644614e-46
2.185431388e-44
6.012843106e-43
1.57828371e-41
3.935632755e-40
9.209620835e-39
9.501123605e-38
1.623678482e-38
1.863892642e-39
1.021933298e-76
4.940000934e-74
1.183482545e-71
1.881454099e-69
2.239739727e-67
2.135199069e-65
1.702716508e-63
1.171975581e-61
7.134576854e-60
3.92047325e-58
1.98007133e-56
9.348400215e-55
4.194024462e-53
1.816999661e-51
7.720007635e-50
3.261669947e-48
1.385533878e-46
5.960865655e-45
2.606300004e-43
1.159036887e-41
5.243096461e-40
1.813986591e-40
2.995694922e-41
1.395602264e-82
1.008541009e-79
3.598528239e-77
8.54975418e-75
1.529435568e-72
2.204888499e-70
2.676760057e-68
2.823736257e-66
2.651366222e-64
2.25935763e-62
1.77614784e-60
1.306570706e-58
9.108465542e-57
6.086724613e-55
3.939795219e-53
2.493714289e-51
1.556898602e-49
9.662590836e-48
6.001963853e-46
3.751897164e-44
2.371014959e-42
1.827326722e-42
4.472692143e-43
2.42911611e-89
3.003349686e-86
1.774018613e-83
6.926878538e-81
2.032660258e-78
4.804971897e-76
9.564945001e-74
1.654741829e-71
2.548683178e-69
3.563866496e-67
4.599465753e-65
5.557963181e-63
6.369650601e-61
7.004101855e-59
7.468477106e-57
7.797611602e-55
8.041789905e-53
8.256079051e-51
8.492001587e-49
8.788527185e-47
9.174745734e-45
1.705995605e-44
6.330699422e-45
1.68884571e-101
7.542812552e-98
1.401056379e-94
1.688683071e-91
1.521948805e-88
1.102019051e-85
6.704414272e-83
3.536786915e-80
1.657242846e-77
7.033180978e-75
2.748297413e-72
1.003207969e-69
3.465509594e-67
1.14642441e-64
3.671880407e-62
1.150291423e-59
3.557531054e-57
1.095149312e-54
3.376635382e-52
1.044775967e-49
3.233014911e-47
1.525835669e-46
8.693159679e-47
0.0001982349405
1.038758462e-05
6.917079629e-08
7.557470265e-08
0.0001637764677
5.758014209e-05
6.917087776e-08
7.418550528e-08
1.356925594e-05
3.395106832e-05
1.163758688e-05
1.492805544e-07
1.713671984e-07
9.479557775e-07
2.219010183e-06
9.480239681e-07
1.248968997e-08
8.920778182e-09
5.084843902e-09
5.675478255e-08
6.885693067e-10
6.179094141e-10
3.497639909e-10
1.838293122e-10
1.363558153e-10
1.035223268e-10
6.947144028e-11
4.336280153e-11
5.382069595e-11
5.582566672e-11
4.913281762e-11
3.273186346e-11
1.596052218e-11
1.541289898e-11
1.301424859e-11
8.679184676e-12
1.069864978e-11
8.702857602e-12
6.242643706e-12
4.438891696e-12
4.90363286e-12
3.557255266e-12
2.356494007e-12
1.423983119e-12
1.816536016e-12
1.157187111e-12
6.887561774e-13
3.767185374e-13
5.729353052e-13
3.206306263e-13
1.723670518e-13
8.628776815e-14
1.596972794e-13
7.829625302e-14
3.80964969e-14
1.755947571e-14
4.009714874e-14
1.713391301e-14
7.556800017e-15
3.220651213e-15
8.976916364e-15
3.365815578e-15
1.353623924e-15
5.360797978e-16
1.848430044e-15
6.079413893e-16
2.232515564e-16
8.220390581e-17
3.523365264e-16
1.018621511e-16
3.422346184e-17
1.17221494e-17
6.199891944e-17
1.58200126e-17
4.873584684e-18
1.554359281e-18
1.00076213e-17
2.267571386e-18
6.423606732e-19
1.911397092e-19
1.469687545e-18
2.980410904e-19
7.793309685e-20
2.170442307e-20
1.947078719e-19
3.566776497e-20
8.650441272e-21
2.264900111e-21
2.309597102e-20
3.861044411e-21
8.735156535e-22
2.161960223e-22
2.438290105e-21
3.760183251e-22
7.987055167e-23
1.880290151e-23
2.280908996e-22
3.280897484e-23
6.589283696e-24
1.485330293e-24
1.884599829e-23
2.557050612e-24
4.892264038e-25
1.063264357e-25
1.372372506e-24
1.776385378e-25
3.26333386e-26
6.886785363e-27
8.796992524e-26
1.098643113e-26
1.953922128e-27
4.032933009e-28
4.962203365e-27
6.047042007e-28
1.050049794e-28
2.13532531e-29
2.464583836e-28
2.963525887e-29
5.068463489e-30
1.023040449e-30
1.079358654e-29
1.294893007e-30
2.200690785e-31
4.442168743e-32
4.177772391e-31
5.055641527e-32
8.615208549e-33
1.752295959e-33
1.433783594e-32
1.769262887e-33
3.050553119e-34
6.29985106e-35
4.381519539e-34
5.572783683e-35
9.810330001e-36
2.072762193e-36
1.198712912e-35
1.58814816e-36
2.88014274e-37
6.27287441e-38
2.95594027e-37
4.121703099e-38
7.767893149e-39
1.756848832e-39
6.625294831e-39
9.819407237e-40
1.939290518e-40
4.586626639e-41
1.363594592e-40
2.168065073e-41
4.522037609e-42
1.125644045e-42
2.608934864e-42
4.486873989e-43
9.952222955e-44
2.622066443e-44
4.707464607e-44
8.817921194e-45
2.092098537e-45
5.860285024e-46
8.142931021e-46
1.669985247e-46
4.256823306e-47
1.271674682e-47
1.375711058e-47
3.09857779e-48
8.50911664e-49
2.714516556e-49
1.961827475e-08
1.125856431e-09
4.111854776e-11
5.409768115e-12
3.943906938e-12
9.923589645e-13
1.579162294e-13
1.798188395e-14
1.564772474e-15
1.079956064e-16
6.032550926e-18
2.751902105e-19
1.025228344e-20
3.092953721e-22
7.416974265e-24
1.36788049e-25
1.830626349e-27
1.588414568e-29
6.720228139e-32
1.389028318e-08
3.061527169e-10
2.158149541e-11
4.61258029e-12
4.13558469e-12
1.376875265e-12
2.434905776e-13
2.906212975e-14
2.581044955e-15
1.78911251e-16
9.931014296e-18
4.469485854e-19
1.634939151e-20
4.828315233e-22
1.131439535e-23
2.037423933e-25
2.662021416e-27
2.255963558e-29
9.329420009e-32
1.010629502e-08
4.945235427e-10
3.195874698e-11
5.309411588e-12
4.09240232e-12
1.194130823e-12
1.733025796e-13
1.829809181e-14
1.503574305e-15
9.907096513e-17
5.312906767e-18
2.333110628e-19
8.379795767e-21
2.439851281e-22
5.652855114e-24
1.008545541e-25
1.307760139e-27
1.101486159e-29
4.532380816e-32
2.580833863e-09
1.270436753e-10
1.171929473e-11
3.9953242e-12
3.062334335e-12
5.437308305e-13
7.108549606e-14
7.165651819e-15
5.723970894e-16
3.689463923e-17
1.940939104e-18
8.376011553e-20
2.960534104e-21
8.493784677e-23
1.941624001e-24
3.422296077e-26
4.389931524e-28
3.662885272e-30
1.494925571e-32
8.316418527e-09
2.626515863e-11
9.624443281e-12
3.554350612e-12
1.234023583e-12
2.066032308e-13
2.537666523e-14
2.421888779e-15
1.84863358e-16
1.147688209e-17
5.851004934e-19
2.458038403e-20
8.486872975e-22
2.384960351e-23
5.352107091e-25
9.279316432e-27
1.172976113e-28
9.661686267e-31
3.898494624e-33
6.602671456e-10
7.770532378e-11
4.879470319e-12
2.445140073e-12
4.802479225e-13
6.999682288e-14
7.878122775e-15
7.050223871e-16
5.114786255e-17
3.04614206e-18
1.499762695e-19
6.115268938e-21
2.057144497e-22
5.649325932e-24
1.241991434e-25
2.1140901e-27
2.628812592e-29
2.133978874e-31
8.498835517e-34
5.508555334e-11
1.2972015e-11
3.277553908e-12
8.672747311e-13
1.503830263e-13
1.992395429e-14
2.084088373e-15
1.759376333e-16
1.216848964e-17
6.962994019e-19
3.313191591e-20
1.311475116e-21
4.297831382e-23
1.153050469e-24
2.482376045e-26
4.146412546e-28
5.069138181e-30
4.052976937e-32
1.592092458e-34
1.031872137e-11
4.044147325e-12
1.271827334e-12
2.583414197e-13
4.003944696e-14
4.875861655e-15
4.771971834e-16
3.816081372e-17
2.522947464e-18
1.389429599e-19
6.396077939e-21
2.459289739e-22
7.85380658e-24
2.058778441e-25
4.34049148e-27
7.114141596e-29
8.549950094e-31
6.73205173e-33
2.607668594e-35
4.715253448e-12
1.568601106e-12
3.659741227e-13
6.565495657e-14
9.247961625e-15
1.044055924e-15
9.607462701e-17
7.299557242e-18
4.621534474e-19
2.452181068e-20
1.092764102e-21
4.08275661e-23
1.270816436e-24
3.255224338e-26
6.721064105e-28
1.08095679e-29
1.277122811e-31
9.902893209e-34
3.78216316e-36
1.633345428e-12
4.364861412e-13
8.985080023e-14
1.453946351e-14
1.882971693e-15
1.983618086e-16
1.722732205e-17
1.246281112e-18
7.565268714e-20
3.869834406e-21
1.669853067e-22
6.062790212e-24
1.839335296e-25
4.603816135e-27
9.308886891e-29
1.469133977e-30
1.706436893e-32
1.303170135e-34
4.907460256e-37
4.41453994e-13
1.041785665e-13
1.928375785e-14
2.851642649e-15
3.422803414e-16
3.380796795e-17
2.778909301e-18
1.917168849e-19
1.116678834e-20
5.508574129e-22
2.301808397e-23
8.121057422e-25
2.401201075e-26
5.872478568e-28
1.162842073e-29
1.8009422e-31
2.056750822e-33
1.547205832e-35
5.745459556e-38
1.029568974e-13
2.183195091e-14
3.679093562e-15
5.014511156e-16
5.60928617e-17
5.212627287e-18
4.063376331e-19
2.67635824e-20
1.496608242e-21
7.121215545e-23
2.881681469e-24
9.879338663e-26
2.846829619e-27
6.802965366e-29
1.319326029e-30
2.005452715e-32
2.252395342e-34
1.66952761e-36
6.114776319e-39
2.120587481e-14
4.084259285e-15
6.315107546e-16
7.977307768e-17
8.347252611e-18
7.315481664e-19
5.416093543e-20
3.408685471e-21
1.83084974e-22
8.405122287e-24
3.294288602e-25
1.097571323e-26
3.082781487e-28
7.199505701e-30
1.367784005e-31
2.04124525e-33
2.255503963e-35
1.648045662e-37
5.955348094e-40
3.919530796e-15
6.898062079e-16
9.831792037e-17
1.155090033e-17
1.133445775e-18
9.384402598e-20
6.606619935e-21
3.976282692e-22
2.052554257e-23
9.095390418e-25
3.45403451e-26
1.11877512e-27
3.064031936e-29
6.996123347e-31
1.302674142e-32
1.909661741e-34
2.077158594e-36
1.497069733e-38
5.339778273e-41
6.564824808e-16
1.058811833e-16
1.394846077e-17
1.527645545e-18
1.408395391e-19
1.103287986e-20
7.394576325e-22
4.260253324e-23
2.11527527e-24
9.054232441e-26
3.333848431e-27
1.050510167e-28
2.807282528e-30
6.271290229e-32
1.145280217e-33
1.650442576e-35
1.768542648e-37
1.25829628e-39
4.432463974e-42
1.000845064e-16
1.480964021e-17
1.806448176e-18
1.847886603e-19
1.603569986e-20
1.190486413e-21
7.607574476e-23
4.201200886e-24
2.008862586e-25
8.315495625e-27
2.971933541e-28
9.11972039e-30
2.380353588e-31
5.207759114e-33
9.337062063e-35
1.324013533e-36
1.399049781e-38
9.835967252e-41
3.42397601e-43
1.412286835e-17
1.893398848e-18
2.134576905e-19
2.044150294e-20
1.673489566e-21
1.179879629e-22
7.203186201e-24
3.819862094e-25
1.762002916e-26
7.064628295e-28
2.454387156e-29
7.344882332e-31
1.875005658e-32
4.022630282e-34
7.089441755e-36
9.903916391e-38
1.033178144e-39
7.185553349e-42
2.473474583e-44
1.879334217e-18
2.30132216e-19
2.384907588e-20
2.106563272e-21
1.59995546e-22
1.074478059e-23
6.284134018e-25
3.207662136e-26
1.430503571e-27
5.566931418e-29
1.883602646e-30
5.506754306e-32
1.377182318e-33
2.901836995e-35
5.034462038e-37
6.938422413e-39
7.155222681e-41
4.928812325e-43
1.678759872e-45
2.355534796e-19
2.651981365e-20
2.540767045e-21
2.083200612e-22
1.478929114e-23
9.302572869e-25
5.116762859e-26
2.49218753e-27
1.07744689e-28
4.080360414e-30
1.347569494e-31
3.856804839e-33
9.467715828e-35
1.962796982e-36
3.357748914e-38
4.572278758e-40
4.667720496e-42
3.188766753e-44
1.075161685e-46
2.772471392e-20
2.888472715e-21
2.573782967e-22
1.971262674e-23
1.316363037e-24
7.80061382e-26
4.058272055e-27
1.879895147e-28
7.747664892e-30
2.807785178e-31
9.01633301e-33
2.532314119e-34
6.115422559e-36
1.249859833e-37
2.112024809e-39
2.846243002e-41
2.880731292e-43
1.954350582e-45
6.524060007e-48
3.050533784e-21
2.961851134e-22
2.470821828e-23
1.779539709e-24
1.124576995e-25
6.314999709e-27
3.124740984e-28
1.383756575e-29
5.46202175e-31
1.902588096e-32
5.899347263e-34
1.604008826e-35
3.763845991e-37
7.520384376e-39
1.257866511e-40
1.680628818e-42
1.689046443e-44
1.139552815e-46
3.763726536e-49
3.121240863e-22
2.846762979e-23
2.239786751e-24
1.527698603e-25
9.192950835e-27
4.920978461e-28
2.329069317e-29
9.909224294e-31
3.763440393e-32
1.265596834e-33
3.803808708e-35
1.004621111e-36
2.297336532e-38
4.491991711e-40
7.370591142e-42
9.69323095e-44
9.621270742e-46
6.433040625e-48
2.099336702e-50
2.954014317e-23
2.553477192e-24
1.910268051e-25
1.2432858e-26
7.170064277e-28
3.681216544e-29
1.676193887e-30
6.885374967e-32
2.527785116e-33
8.243258874e-35
2.410378717e-36
6.204419409e-38
1.386796885e-39
2.66099316e-41
4.292348149e-43
5.56606955e-45
5.464082472e-47
3.62488588e-49
1.169319867e-51
2.573560054e-24
2.128964571e-25
1.527737849e-26
9.564023489e-28
5.321772703e-29
2.637176879e-30
1.162104705e-31
4.631718508e-33
1.651410065e-34
5.245543927e-36